REMARK  Name = 
REMARK  17 active torsions:
REMARK  status: ('A' for Active; 'I' for Inactive)
REMARK    1  A    between atoms: C_1  and  C_2
REMARK    2  A    between atoms: C_2  and  C_3
REMARK    3  A    between atoms: C_2  and  C_4
REMARK    4  A    between atoms: C_2  and  N_5
REMARK    5  A    between atoms: C_6  and  C_8
REMARK    6  A    between atoms: N_10  and  C_39
REMARK    7  A    between atoms: N_13  and  C_14
REMARK    8  A    between atoms: C_14  and  C_15
REMARK    9  A    between atoms: C_15  and  C_16
REMARK   10  A    between atoms: C_15  and  O_38
REMARK   11  A    between atoms: C_16  and  C_17
REMARK   12  A    between atoms: C_17  and  C_18
REMARK   13  A    between atoms: C_17  and  C_25
REMARK   14  A    between atoms: C_18  and  C_19
REMARK   15  A    between atoms: N_27  and  C_28
REMARK   16  A    between atoms: C_29  and  O_37
REMARK   17  A    between atoms: C_39  and  C_40
REMARK                            x       y       z     vdW  Elec       q    Type
REMARK                         _______ _______ _______ _____ _____    ______ ____
ROOT
ATOM      1  C   UNL     1       2.699   1.705  -2.398  0.00  0.00    +0.000 C 
ENDROOT
BRANCH   1   2
ATOM      2  O   UNL     1       1.426   1.033  -2.384  0.00  0.00    +0.000 OA
ATOM      3  H   UNL     1       0.726   1.704  -2.307  0.00  0.00    +0.000 HD
ENDBRANCH   1   2
BRANCH   1   4
ATOM      4  C   UNL     1       3.537   1.220  -1.169  0.00  0.00    +0.000 C 
BRANCH   4  10
ATOM      5  C   UNL     1       4.204   1.121   1.223  0.00  0.00    +0.000 C 
ATOM      6  C   UNL     1       4.144  -0.411   1.529  0.00  0.00    +0.000 C 
ATOM      7  N   UNL     1       2.838  -0.914   2.003  0.00  0.00    +0.000 NA
ATOM      8  C   UNL     1       1.797  -0.443   1.063  0.00  0.00    +0.000 C 
ATOM      9  C   UNL     1       1.862   1.067   0.671  0.00  0.00    +0.000 C 
ATOM     10  N   UNL     1       3.176   1.617   0.223  0.00  0.00    +0.000 NA
BRANCH   5  12
ATOM     11  N   UNL     1       5.876   2.842   0.649  0.00  0.00    +0.000 N 
ATOM     12  C   UNL     1       5.638   1.496   0.844  0.00  0.00    +0.000 C 
ATOM     13  O   UNL     1       6.529   0.653   0.749  0.00  0.00    +0.000 OA
ATOM     14  H   UNL     1       5.071   3.452   0.744  0.00  0.00    +0.000 HD
BRANCH  11  16
ATOM     15  C   UNL     1       7.789   2.764  -0.933  0.00  0.00    +0.000 C 
ATOM     16  C   UNL     1       7.196   3.406   0.336  0.00  0.00    +0.000 C 
ATOM     17  C   UNL     1       8.161   3.210   1.520  0.00  0.00    +0.000 C 
ATOM     18  C   UNL     1       7.048   4.915   0.075  0.00  0.00    +0.000 C 
ENDBRANCH  11  16
ENDBRANCH   5  12
BRANCH   7  19
ATOM     19  C   UNL     1       2.529  -0.544   3.398  0.00  0.00    +0.000 C 
BRANCH  19  20
ATOM     20  C   UNL     1       3.512  -1.039   4.436  0.00  0.00    +0.000 A 
ATOM     21  C   UNL     1       4.169  -0.145   5.278  0.00  0.00    +0.000 A 
ATOM     22  N   UNL     1       5.031  -0.501   6.259  0.00  0.00    +0.000 NA
ATOM     23  C   UNL     1       5.257  -1.826   6.410  0.00  0.00    +0.000 A 
ATOM     24  C   UNL     1       4.664  -2.802   5.631  0.00  0.00    +0.000 A 
ATOM     25  C   UNL     1       3.772  -2.399   4.634  0.00  0.00    +0.000 A 
ENDBRANCH  19  20
ENDBRANCH   7  19
ENDBRANCH   4  10
ENDBRANCH   1   4
BRANCH   1  26
ATOM     26  C   UNL     1       2.458   3.210  -2.630  0.00  0.00    +0.000 C 
BRANCH  26  27
ATOM     27  C   UNL     1       3.624   4.207  -2.858  0.00  0.00    +0.000 C 
BRANCH  27  28
ATOM     28  C   UNL     1       3.019   5.627  -3.055  0.00  0.00    +0.000 C 
ATOM     29  O   UNL     1       1.824   5.856  -2.871  0.00  0.00    +0.000 OA
ATOM     30  N   UNL     1       3.881   6.639  -3.399  0.00  0.00    +0.000 N 
ATOM     31  H   UNL     1       4.871   6.463  -3.465  0.00  0.00    +0.000 HD
BRANCH  30  32
ATOM     32  C   UNL     1       3.407   8.002  -3.604  0.00  0.00    +0.000 C 
ATOM     33  C   UNL     1       2.395   8.207  -4.796  0.00  0.00    +0.000 C 
ATOM     34  C   UNL     1       2.506   9.702  -5.125  0.00  0.00    +0.000 C 
ATOM     35  C   UNL     1       4.001   9.835  -5.019  0.00  0.00    +0.000 A 
ATOM     36  C   UNL     1       4.853  10.555  -5.834  0.00  0.00    +0.000 A 
ATOM     37  C   UNL     1       6.225  10.436  -5.612  0.00  0.00    +0.000 A 
ATOM     38  C   UNL     1       6.716   9.674  -4.540  0.00  0.00    +0.000 A 
ATOM     39  C   UNL     1       5.851   8.928  -3.738  0.00  0.00    +0.000 A 
ATOM     40  C   UNL     1       4.503   8.945  -4.052  0.00  0.00    +0.000 A 
BRANCH  33  41
ATOM     41  O   UNL     1       2.740   7.484  -5.995  0.00  0.00    +0.000 OA
ATOM     42  H   UNL     1       3.617   7.789  -6.295  0.00  0.00    +0.000 HD
ENDBRANCH  33  41
ENDBRANCH  30  32
ENDBRANCH  27  28
BRANCH  27  43
ATOM     43  C   UNL     1       4.659   3.801  -3.936  0.00  0.00    +0.000 C 
BRANCH  43  44
ATOM     44  C   UNL     1       4.379   3.840  -5.428  0.00  0.00    +0.000 A 
ATOM     45  C   UNL     1       3.307   4.516  -6.012  0.00  0.00    +0.000 A 
ATOM     46  C   UNL     1       3.253   4.731  -7.397  0.00  0.00    +0.000 A 
ATOM     47  C   UNL     1       4.249   4.234  -8.229  0.00  0.00    +0.000 A 
ATOM     48  C   UNL     1       5.283   3.488  -7.679  0.00  0.00    +0.000 A 
ATOM     49  C   UNL     1       5.348   3.296  -6.293  0.00  0.00    +0.000 A 
ENDBRANCH  43  44
ENDBRANCH  27  43
ENDBRANCH  26  27
ENDBRANCH   1  26
TORSDOF 14
