REMARK  Name = 5362440
REMARK  17 active torsions:
REMARK  status: ('A' for Active; 'I' for Inactive)
REMARK    1  A    between atoms: O_1  and  C_15
REMARK    2  A    between atoms: O_2  and  C_20
REMARK    3  A    between atoms: N_5  and  C_13
REMARK    4  A    between atoms: N_6  and  C_21
REMARK    5  A    between atoms: N_7  and  C_18
REMARK    6  A    between atoms: N_8  and  C_27
REMARK    7  A    between atoms: C_10  and  C_19
REMARK    8  A    between atoms: C_13  and  C_15
REMARK    9  A    between atoms: C_15  and  C_16
REMARK   10  A    between atoms: C_16  and  C_17
REMARK   11  A    between atoms: C_17  and  C_24
REMARK   12  A    between atoms: C_17  and  C_25
REMARK   13  A    between atoms: C_21  and  C_28
REMARK   14  A    between atoms: C_25  and  C_30
REMARK   15  A    between atoms: C_27  and  C_32
REMARK   16  A    between atoms: C_27  and  C_33
REMARK   17  A    between atoms: C_27  and  C_34
REMARK                            x       y       z     vdW  Elec       q    Type
REMARK                         _______ _______ _______ _____ _____    ______ ____
ROOT
ATOM      1  C   UNL     1       0.375   0.223  -1.285  0.00  0.00    +0.000 C 
ENDROOT
BRANCH   1   2
ATOM      2  O   UNL     1       1.107   0.477  -2.485  0.00  0.00    +0.000 OA
ATOM      3  H   UNL     1       2.046   0.307  -2.301  0.00  0.00    +0.000 HD
ENDBRANCH   1   2
BRANCH   1   4
ATOM      4  C   UNL     1      -1.110   0.113  -1.648  0.00  0.00    +0.000 C 
BRANCH   4   5
ATOM      5  N   UNL     1      -1.946  -0.181  -0.478  0.00  0.00    +0.000 NA
ATOM      6  N   UNL     1      -4.113  -1.646   0.790  0.00  0.00    +0.000 NA
ATOM      7  C   UNL     1      -3.354   0.189  -0.694  0.00  0.00    +0.000 C 
ATOM      8  C   UNL     1      -4.236  -0.213   0.500  0.00  0.00    +0.000 C 
ATOM      9  C   UNL     1      -1.839  -1.613  -0.152  0.00  0.00    +0.000 C 
ATOM     10  C   UNL     1      -2.710  -1.986   1.050  0.00  0.00    +0.000 C 
BRANCH   7  13
ATOM     11  O   UNL     1      -2.636   2.427  -0.273  0.00  0.00    +0.000 OA
ATOM     12  N   UNL     1      -4.500   2.076  -1.623  0.00  0.00    +0.000 N 
ATOM     13  C   UNL     1      -3.434   1.680  -0.832  0.00  0.00    +0.000 C 
ATOM     14  H   UNL     1      -5.104   1.364  -2.022  0.00  0.00    +0.000 HD
BRANCH  12  15
ATOM     15  C   UNL     1      -4.810   3.461  -1.895  0.00  0.00    +0.000 C 
ATOM     16  C   UNL     1      -3.618   4.119  -2.599  0.00  0.00    +0.000 C 
ATOM     17  C   UNL     1      -6.046   3.535  -2.799  0.00  0.00    +0.000 C 
ATOM     18  C   UNL     1      -5.092   4.180  -0.571  0.00  0.00    +0.000 C 
ENDBRANCH  12  15
ENDBRANCH   7  13
BRANCH   6  19
ATOM     19  C   UNL     1      -4.956  -2.022   1.922  0.00  0.00    +0.000 C 
BRANCH  19  21
ATOM     20  N   UNL     1      -8.725  -1.671   2.014  0.00  0.00    +0.000 NA
ATOM     21  C   UNL     1      -6.404  -2.143   1.527  0.00  0.00    +0.000 A 
ATOM     22  C   UNL     1      -6.776  -2.809   0.365  0.00  0.00    +0.000 A 
ATOM     23  C   UNL     1      -7.408  -1.597   2.311  0.00  0.00    +0.000 A 
ATOM     24  C   UNL     1      -8.121  -2.907   0.026  0.00  0.00    +0.000 A 
ATOM     25  C   UNL     1      -9.048  -2.326   0.877  0.00  0.00    +0.000 A 
ENDBRANCH  19  21
ENDBRANCH   6  19
ENDBRANCH   4   5
ENDBRANCH   1   4
BRANCH   1  26
ATOM     26  C   UNL     1       0.659   1.363  -0.289  0.00  0.00    +0.000 C 
BRANCH  26  27
ATOM     27  C   UNL     1       2.139   1.439   0.148  0.00  0.00    +0.000 C 
BRANCH  27  30
ATOM     28  O   UNL     1       2.094  -0.378   1.757  0.00  0.00    +0.000 OA
ATOM     29  N   UNL     1       3.634  -0.468   0.024  0.00  0.00    +0.000 N 
ATOM     30  C   UNL     1       2.607   0.113   0.754  0.00  0.00    +0.000 C 
ATOM     31  H   UNL     1       4.022   0.030  -0.772  0.00  0.00    +0.000 HD
BRANCH  29  32
ATOM     32  C   UNL     1       4.215  -1.732   0.375  0.00  0.00    +0.000 C 
ATOM     33  C   UNL     1       5.437  -1.615   1.313  0.00  0.00    +0.000 C 
ATOM     34  C   UNL     1       6.303  -2.860   1.045  0.00  0.00    +0.000 C 
ATOM     35  C   UNL     1       4.803  -2.484  -0.784  0.00  0.00    +0.000 A 
ATOM     36  C   UNL     1       5.985  -3.131  -0.396  0.00  0.00    +0.000 A 
ATOM     37  C   UNL     1       4.300  -2.636  -2.066  0.00  0.00    +0.000 A 
ATOM     38  C   UNL     1       6.686  -3.934  -1.280  0.00  0.00    +0.000 A 
ATOM     39  C   UNL     1       5.008  -3.434  -2.968  0.00  0.00    +0.000 A 
ATOM     40  C   UNL     1       6.193  -4.077  -2.578  0.00  0.00    +0.000 A 
BRANCH  33  41
ATOM     41  O   UNL     1       6.198  -0.448   0.994  0.00  0.00    +0.000 OA
ATOM     42  H   UNL     1       6.954  -0.418   1.605  0.00  0.00    +0.000 HD
ENDBRANCH  33  41
ENDBRANCH  29  32
ENDBRANCH  27  30
BRANCH  27  43
ATOM     43  C   UNL     1       2.363   2.544   1.205  0.00  0.00    +0.000 C 
BRANCH  43  44
ATOM     44  C   UNL     1       3.800   2.986   1.332  0.00  0.00    +0.000 A 
ATOM     45  C   UNL     1       4.650   2.346   2.234  0.00  0.00    +0.000 A 
ATOM     46  C   UNL     1       4.279   4.036   0.548  0.00  0.00    +0.000 A 
ATOM     47  C   UNL     1       5.979   2.755   2.352  0.00  0.00    +0.000 A 
ATOM     48  C   UNL     1       5.608   4.444   0.665  0.00  0.00    +0.000 A 
ATOM     49  C   UNL     1       6.457   3.804   1.567  0.00  0.00    +0.000 A 
ENDBRANCH  43  44
ENDBRANCH  27  43
ENDBRANCH  26  27
ENDBRANCH   1  26
TORSDOF 14
