REMARK  Name = data/1hsg__indinavir/ligand_mk1.pdb
REMARK  17 active torsions:
REMARK  status: ('A' for Active; 'I' for Inactive)
REMARK    1  A    between atoms: N_1  and  C_39
REMARK    2  A    between atoms: C_3  and  C_4
REMARK    3  A    between atoms: N_6  and  C_7
REMARK    4  A    between atoms: C_7  and  C_8
REMARK    5  A    between atoms: C_7  and  C_9
REMARK    6  A    between atoms: C_7  and  C_10
REMARK    7  A    between atoms: N_11  and  C_14
REMARK    8  A    between atoms: C_14  and  C_15
REMARK    9  A    between atoms: C_15  and  O_16
REMARK   10  A    between atoms: C_15  and  C_17
REMARK   11  A    between atoms: C_17  and  C_18
REMARK   12  A    between atoms: C_18  and  C_19
REMARK   13  A    between atoms: C_18  and  C_26
REMARK   14  A    between atoms: C_19  and  C_20
REMARK   15  A    between atoms: N_28  and  C_29
REMARK   16  A    between atoms: C_30  and  O_31
REMARK   17  A    between atoms: C_39  and  C_40
REMARK                            x       y       z     vdW  Elec       q    Type
REMARK                         _______ _______ _______ _____ _____    ______ ____
ROOT
ATOM      1  C   UNL     1       1.495  -5.628  -5.324  0.00  0.00    +0.000 C 
ENDROOT
BRANCH   1   2
ATOM      2  O   UNL     1       0.367  -6.504  -5.218  0.00  0.00    +0.000 OA
ATOM      3  H   UNL     1      -0.441  -5.987  -5.373  0.00  0.00    +0.000 HD
ENDBRANCH   1   2
BRANCH   1   4
ATOM      4  C   UNL     1       1.499  -4.528  -4.215  0.00  0.00    +0.000 C 
BRANCH   4   8
ATOM      5  N   UNL     1      -1.170  -3.793  -1.687  0.00  0.00    +0.000 NA
ATOM      6  C   UNL     1       0.046  -2.941  -1.883  0.00  0.00    +0.000 C 
ATOM      7  C   UNL     1       1.467  -3.623  -1.948  0.00  0.00    +0.000 C 
ATOM      8  N   UNL     1       1.499  -4.896  -2.767  0.00  0.00    +0.000 NA
ATOM      9  C   UNL     1       0.316  -5.720  -2.405  0.00  0.00    +0.000 C 
ATOM     10  C   UNL     1      -1.046  -4.991  -2.540  0.00  0.00    +0.000 C 
BRANCH   7  11
ATOM     11  C   UNL     1       2.028  -3.821  -0.511  0.00  0.00    +0.000 C 
ATOM     12  O   UNL     1       1.301  -3.931   0.473  0.00  0.00    +0.000 OA
ATOM     13  N   UNL     1       3.393  -3.793  -0.319  0.00  0.00    +0.000 N 
ATOM     14  H   UNL     1       3.997  -3.810  -1.131  0.00  0.00    +0.000 HD
BRANCH  13  15
ATOM     15  C   UNL     1       3.974  -4.008   1.030  0.00  0.00    +0.000 C 
ATOM     16  C   UNL     1       3.738  -5.461   1.488  0.00  0.00    +0.000 C 
ATOM     17  C   UNL     1       5.489  -3.756   0.978  0.00  0.00    +0.000 C 
ATOM     18  C   UNL     1       3.391  -3.028   2.078  0.00  0.00    +0.000 C 
ENDBRANCH  13  15
ENDBRANCH   7  11
BRANCH   5  19
ATOM     19  C   UNL     1      -1.293  -4.162  -0.264  0.00  0.00    +0.000 C 
BRANCH  19  20
ATOM     20  C   UNL     1      -2.455  -5.017   0.150  0.00  0.00    +0.000 A 
ATOM     21  C   UNL     1      -3.772  -4.592   0.017  0.00  0.00    +0.000 A 
ATOM     22  N   UNL     1      -4.845  -5.317   0.444  0.00  0.00    +0.000 NA
ATOM     23  C   UNL     1      -4.570  -6.501   1.056  0.00  0.00    +0.000 A 
ATOM     24  C   UNL     1      -3.289  -7.001   1.246  0.00  0.00    +0.000 A 
ATOM     25  C   UNL     1      -2.224  -6.242   0.790  0.00  0.00    +0.000 A 
ENDBRANCH  19  20
ENDBRANCH   5  19
ENDBRANCH   4   8
ENDBRANCH   1   4
BRANCH   1  26
ATOM     26  C   UNL     1       1.430  -5.005  -6.751  0.00  0.00    +0.000 C 
BRANCH  26  27
ATOM     27  C   UNL     1       2.600  -4.079  -7.158  0.00  0.00    +0.000 C 
BRANCH  27  28
ATOM     28  C   UNL     1       2.295  -3.256  -8.464  0.00  0.00    +0.000 C 
ATOM     29  O   UNL     1       1.201  -3.263  -9.015  0.00  0.00    +0.000 OA
ATOM     30  N   UNL     1       3.335  -2.449  -8.889  0.00  0.00    +0.000 N 
ATOM     31  H   UNL     1       4.219  -2.810  -8.559  0.00  0.00    +0.000 HD
BRANCH  30  32
ATOM     32  C   UNL     1       3.540  -2.024 -10.282  0.00  0.00    +0.000 C 
ATOM     33  C   UNL     1       5.097  -1.796 -10.458  0.00  0.00    +0.000 C 
ATOM     34  C   UNL     1       5.322  -0.284 -10.464  0.00  0.00    +0.000 C 
ATOM     35  C   UNL     1       4.110   0.122 -11.218  0.00  0.00    +0.000 A 
ATOM     36  C   UNL     1       4.063   1.040 -12.256  0.00  0.00    +0.000 A 
ATOM     37  C   UNL     1       2.862   1.180 -12.946  0.00  0.00    +0.000 A 
ATOM     38  C   UNL     1       1.727   0.472 -12.522  0.00  0.00    +0.000 A 
ATOM     39  C   UNL     1       1.798  -0.481 -11.486  0.00  0.00    +0.000 A 
ATOM     40  C   UNL     1       3.026  -0.718 -10.883  0.00  0.00    +0.000 A 
BRANCH  33  41
ATOM     41  O   UNL     1       5.844  -2.420  -9.404  0.00  0.00    +0.000 OA
ATOM     42  H   UNL     1       5.918  -1.776  -8.676  0.00  0.00    +0.000 HD
ENDBRANCH  33  41
ENDBRANCH  30  32
ENDBRANCH  27  28
BRANCH  27  43
ATOM     43  C   UNL     1       3.941  -4.860  -7.132  0.00  0.00    +0.000 C 
BRANCH  43  44
ATOM     44  C   UNL     1       4.037  -6.116  -7.971  0.00  0.00    +0.000 A 
ATOM     45  C   UNL     1       3.874  -6.069  -9.354  0.00  0.00    +0.000 A 
ATOM     46  C   UNL     1       4.012  -7.226 -10.135  0.00  0.00    +0.000 A 
ATOM     47  C   UNL     1       4.321  -8.446  -9.537  0.00  0.00    +0.000 A 
ATOM     48  C   UNL     1       4.486  -8.511  -8.157  0.00  0.00    +0.000 A 
ATOM     49  C   UNL     1       4.345  -7.356  -7.381  0.00  0.00    +0.000 A 
ENDBRANCH  43  44
ENDBRANCH  27  43
ENDBRANCH  26  27
ENDBRANCH   1  26
TORSDOF 14
