REMARK  Name = 
REMARK  24 active torsions:
REMARK  status: ('A' for Active; 'I' for Inactive)
REMARK    1  A    between atoms: C_1  and  C_2
REMARK    2  A    between atoms: C_2  and  C_3
REMARK    3  A    between atoms: C_2  and  C_4
REMARK    4  A    between atoms: C_6  and  C_9
REMARK    5  A    between atoms: C_9  and  N_10
REMARK    6  A    between atoms: N_10  and  C_11
REMARK    7  A    between atoms: N_14  and  C_15
REMARK    8  A    between atoms: C_15  and  C_16
REMARK    9  A    between atoms: C_15  and  C_19
REMARK   10  A    between atoms: C_16  and  C_17
REMARK   11  A    between atoms: C_16  and  C_18
REMARK   12  A    between atoms: N_21  and  C_22
REMARK   13  A    between atoms: C_22  and  C_23
REMARK   14  A    between atoms: C_22  and  C_30
REMARK   15  A    between atoms: C_23  and  C_24
REMARK   16  A    between atoms: C_30  and  C_31
REMARK   17  A    between atoms: C_31  and  C_32
REMARK   18  A    between atoms: C_31  and  O_50
REMARK   19  A    between atoms: C_32  and  C_33
REMARK   20  A    between atoms: C_32  and  N_40
REMARK   21  A    between atoms: C_33  and  C_34
REMARK   22  A    between atoms: C_41  and  O_43
REMARK   23  A    between atoms: O_43  and  C_44
REMARK   24  A    between atoms: C_44  and  C_45
REMARK                            x       y       z     vdW  Elec       q    Type
REMARK                         _______ _______ _______ _____ _____    ______ ____
ROOT
ATOM      1  C   UNL     1       1.088   0.638   1.325  0.00  0.00    +0.000 C 
ENDROOT
BRANCH   1   4
ATOM      2  C   UNL     1      -0.078  -0.207  -0.715  0.00  0.00    +0.000 C 
ATOM      3  O   UNL     1       0.839  -0.967  -1.024  0.00  0.00    +0.000 OA
ATOM      4  N   UNL     1      -0.056   0.573   0.416  0.00  0.00    +0.000 N 
ATOM      5  H   UNL     1      -0.958   0.929   0.739  0.00  0.00    +0.000 HD
BRANCH   2   6
ATOM      6  C   UNL     1      -1.363  -0.090  -1.566  0.00  0.00    +0.000 C 
BRANCH   6  11
ATOM      7  N   UNL     1      -4.143  -1.170   0.640  0.00  0.00    +0.000 N 
ATOM      8  C   UNL     1      -4.964  -0.703   1.744  0.00  0.00    +0.000 C 
ATOM      9  C   UNL     1      -3.091  -0.381   0.219  0.00  0.00    +0.000 C 
ATOM     10  O   UNL     1      -2.727   0.625   0.825  0.00  0.00    +0.000 OA
ATOM     11  N   UNL     1      -2.467  -0.816  -0.919  0.00  0.00    +0.000 N 
ATOM     12  H   UNL     1      -3.103  -1.238  -1.576  0.00  0.00    +0.000 HD
BRANCH   7  13
ATOM     13  C   UNL     1      -4.370  -2.548   0.201  0.00  0.00    +0.000 C 
BRANCH  13  16
ATOM     14  C   UNL     1      -7.205  -2.141  -2.028  0.00  0.00    +0.000 A 
ATOM     15  N   UNL     1      -6.558  -2.029  -0.886  0.00  0.00    +0.000 NA
ATOM     16  C   UNL     1      -5.287  -2.583  -0.985  0.00  0.00    +0.000 A 
ATOM     17  C   UNL     1      -5.008  -3.146  -2.216  0.00  0.00    +0.000 A 
ATOM     18  S   UNL     1      -6.334  -2.943  -3.278  0.00  0.00    +0.000 S 
BRANCH  14  20
ATOM     19  C   UNL     1      -9.600  -2.722  -2.561  0.00  0.00    +0.000 C 
ATOM     20  C   UNL     1      -8.603  -1.610  -2.238  0.00  0.00    +0.000 C 
ATOM     21  C   UNL     1      -8.643  -0.504  -3.292  0.00  0.00    +0.000 C 
ENDBRANCH  14  20
ENDBRANCH  13  16
ENDBRANCH   7  13
ENDBRANCH   6  11
BRANCH   6  22
ATOM     22  C   UNL     1      -1.711   1.359  -1.992  0.00  0.00    +0.000 C 
ATOM     23  C   UNL     1      -0.546   2.010  -2.745  0.00  0.00    +0.000 C 
ATOM     24  C   UNL     1      -2.961   1.395  -2.880  0.00  0.00    +0.000 C 
ENDBRANCH   6  22
ENDBRANCH   2   6
ENDBRANCH   1   4
BRANCH   1  25
ATOM     25  C   UNL     1       1.102   1.996   2.059  0.00  0.00    +0.000 C 
BRANCH  25  26
ATOM     26  C   UNL     1       1.010   3.196   1.139  0.00  0.00    +0.000 A 
ATOM     27  C   UNL     1       2.124   3.616   0.402  0.00  0.00    +0.000 A 
ATOM     28  C   UNL     1       2.033   4.720  -0.448  0.00  0.00    +0.000 A 
ATOM     29  C   UNL     1       0.827   5.407  -0.577  0.00  0.00    +0.000 A 
ATOM     30  C   UNL     1      -0.289   4.993   0.146  0.00  0.00    +0.000 A 
ATOM     31  C   UNL     1      -0.199   3.894   1.002  0.00  0.00    +0.000 A 
ENDBRANCH  25  26
ENDBRANCH   1  25
BRANCH   1  32
ATOM     32  C   UNL     1       1.031  -0.573   2.281  0.00  0.00    +0.000 C 
BRANCH  32  33
ATOM     33  C   UNL     1       2.199  -0.815   3.254  0.00  0.00    +0.000 C 
BRANCH  33  34
ATOM     34  O   UNL     1       2.352   0.303   4.130  0.00  0.00    +0.000 OA
ATOM     35  H   UNL     1       2.708  -0.022   4.975  0.00  0.00    +0.000 HD
ENDBRANCH  33  34
BRANCH  33  36
ATOM     36  C   UNL     1       3.549  -1.198   2.588  0.00  0.00    +0.000 C 
BRANCH  36  37
ATOM     37  N   UNL     1       4.108  -0.078   1.844  0.00  0.00    +0.000 N 
ATOM     38  C   UNL     1       4.671  -0.220   0.612  0.00  0.00    +0.000 C 
ATOM     39  O   UNL     1       4.739  -1.264  -0.018  0.00  0.00    +0.000 OA
ATOM     40  H   UNL     1       4.151   0.837   2.271  0.00  0.00    +0.000 HD
BRANCH  38  41
ATOM     41  O   UNL     1       5.121   0.984   0.188  0.00  0.00    +0.000 OA
BRANCH  41  42
ATOM     42  C   UNL     1       5.723   0.980  -1.113  0.00  0.00    +0.000 C 
BRANCH  42  43
ATOM     43  C   UNL     1       4.721   1.508  -2.082  0.00  0.00    +0.000 A 
ATOM     44  C   UNL     1       3.563   0.917  -2.552  0.00  0.00    +0.000 A 
ATOM     45  N   UNL     1       2.852   1.648  -3.487  0.00  0.00    +0.000 NA
ATOM     46  C   UNL     1       3.461   2.793  -3.693  0.00  0.00    +0.000 A 
ATOM     47  S   UNL     1       4.915   3.046  -2.821  0.00  0.00    +0.000 S 
ENDBRANCH  42  43
ENDBRANCH  41  42
ENDBRANCH  38  41
ENDBRANCH  36  37
BRANCH  36  48
ATOM     48  C   UNL     1       4.552  -1.677   3.668  0.00  0.00    +0.000 C 
BRANCH  48  49
ATOM     49  C   UNL     1       5.859  -2.216   3.134  0.00  0.00    +0.000 A 
ATOM     50  C   UNL     1       7.057  -1.520   3.353  0.00  0.00    +0.000 A 
ATOM     51  C   UNL     1       8.266  -2.017   2.862  0.00  0.00    +0.000 A 
ATOM     52  C   UNL     1       8.290  -3.213   2.149  0.00  0.00    +0.000 A 
ATOM     53  C   UNL     1       7.107  -3.913   1.926  0.00  0.00    +0.000 A 
ATOM     54  C   UNL     1       5.897  -3.419   2.417  0.00  0.00    +0.000 A 
ENDBRANCH  48  49
ENDBRANCH  36  48
ENDBRANCH  33  36
ENDBRANCH  32  33
ENDBRANCH   1  32
TORSDOF 19
