REMARK  Name = 
REMARK  20 active torsions:
REMARK  status: ('A' for Active; 'I' for Inactive)
REMARK    1  A    between atoms: C_1  and  C_2
REMARK    2  A    between atoms: C_3  and  O_9
REMARK    3  A    between atoms: C_4  and  C_8
REMARK    4  A    between atoms: O_9  and  C_10
REMARK    5  A    between atoms: C_10  and  C_11
REMARK    6  A    between atoms: N_13  and  C_14
REMARK    7  A    between atoms: C_14  and  C_15
REMARK    8  A    between atoms: C_14  and  C_22
REMARK    9  A    between atoms: C_15  and  C_16
REMARK   10  A    between atoms: C_22  and  C_23
REMARK   11  A    between atoms: C_22  and  O_46
REMARK   12  A    between atoms: C_23  and  C_24
REMARK   13  A    between atoms: C_24  and  C_25
REMARK   14  A    between atoms: C_24  and  N_32
REMARK   15  A    between atoms: C_25  and  C_26
REMARK   16  A    between atoms: C_33  and  C_35
REMARK   17  A    between atoms: C_35  and  C_36
REMARK   18  A    between atoms: C_35  and  N_39
REMARK   19  A    between atoms: C_36  and  C_37
REMARK   20  A    between atoms: C_36  and  C_38
REMARK                            x       y       z     vdW  Elec       q    Type
REMARK                         _______ _______ _______ _____ _____    ______ ____
ROOT
ATOM      1  C   UNL     1       0.522   0.572  -0.906  0.00  0.00    +0.000 C 
ENDROOT
BRANCH   1   2
ATOM      2  O   UNL     1       0.062   0.710  -2.255  0.00  0.00    +0.000 OA
ATOM      3  H   UNL     1       0.829   0.559  -2.851  0.00  0.00    +0.000 HD
ENDBRANCH   1   2
BRANCH   1   4
ATOM      4  C   UNL     1       1.542  -0.613  -0.783  0.00  0.00    +0.000 C 
BRANCH   4   7
ATOM      5  C   UNL     1       3.187   0.056  -2.584  0.00  0.00    +0.000 C 
ATOM      6  O   UNL     1       2.333   0.177  -3.459  0.00  0.00    +0.000 OA
ATOM      7  N   UNL     1       2.879  -0.207  -1.269  0.00  0.00    +0.000 N 
ATOM      8  H   UNL     1       3.686  -0.479  -0.711  0.00  0.00    +0.000 HD
BRANCH   5   9
ATOM      9  C   UNL     1       4.681   0.212  -2.871  0.00  0.00    +0.000 C 
BRANCH   9  10
ATOM     10  O   UNL     1       5.443  -0.074  -1.692  0.00  0.00    +0.000 OA
BRANCH  10  13
ATOM     11  C   UNL     1       6.050  -2.834  -2.196  0.00  0.00    +0.000 C 
ATOM     12  C   UNL     1       7.074  -1.736  -2.254  0.00  0.00    +0.000 A 
ATOM     13  C   UNL     1       6.736  -0.392  -2.021  0.00  0.00    +0.000 A 
ATOM     14  C   UNL     1       7.709   0.620  -2.045  0.00  0.00    +0.000 A 
ATOM     15  C   UNL     1       9.022   0.280  -2.394  0.00  0.00    +0.000 A 
ATOM     16  C   UNL     1       9.362  -1.044  -2.673  0.00  0.00    +0.000 A 
ATOM     17  C   UNL     1       8.395  -2.046  -2.601  0.00  0.00    +0.000 A 
ATOM     18  C   UNL     1       7.367   2.052  -1.750  0.00  0.00    +0.000 C 
ENDBRANCH  10  13
ENDBRANCH   9  10
ENDBRANCH   5   9
ENDBRANCH   4   7
BRANCH   4  19
ATOM     19  C   UNL     1       1.669  -1.145   0.667  0.00  0.00    +0.000 C 
BRANCH  19  20
ATOM     20  C   UNL     1       2.630  -2.306   0.813  0.00  0.00    +0.000 A 
ATOM     21  C   UNL     1       3.835  -2.151   1.513  0.00  0.00    +0.000 A 
ATOM     22  C   UNL     1       4.721  -3.222   1.641  0.00  0.00    +0.000 A 
ATOM     23  C   UNL     1       4.411  -4.457   1.077  0.00  0.00    +0.000 A 
ATOM     24  C   UNL     1       3.213  -4.624   0.384  0.00  0.00    +0.000 A 
ATOM     25  C   UNL     1       2.326  -3.555   0.253  0.00  0.00    +0.000 A 
ENDBRANCH  19  20
ENDBRANCH   4  19
ENDBRANCH   1   4
BRANCH   1  26
ATOM     26  C   UNL     1      -0.723   0.429  -0.018  0.00  0.00    +0.000 C 
BRANCH  26  27
ATOM     27  C   UNL     1      -1.880   1.409  -0.327  0.00  0.00    +0.000 C 
BRANCH  27  28
ATOM     28  N   UNL     1      -2.959   1.246   0.663  0.00  0.00    +0.000 N 
ATOM     29  C   UNL     1      -3.739   0.104   0.736  0.00  0.00    +0.000 C 
ATOM     30  O   UNL     1      -3.530  -0.883   0.034  0.00  0.00    +0.000 OA
ATOM     31  H   UNL     1      -3.394   2.098   0.992  0.00  0.00    +0.000 HD
BRANCH  29  32
ATOM     32  C   UNL     1      -4.944   0.222   1.714  0.00  0.00    +0.000 C 
BRANCH  32  33
ATOM     33  N   UNL     1      -5.824  -0.964   1.581  0.00  0.00    +0.000 N 
ATOM     34  C   UNL     1      -6.939  -0.853   0.645  0.00  0.00    +0.000 C 
ATOM     35  C   UNL     1      -7.386  -2.189   0.082  0.00  0.00    +0.000 C 
ATOM     36  C   UNL     1      -7.569  -3.136   1.241  0.00  0.00    +0.000 C 
ATOM     37  N   UNL     1      -6.360  -3.192   2.014  0.00  0.00    +0.000 N 
ATOM     38  C   UNL     1      -5.526  -2.140   2.237  0.00  0.00    +0.000 C 
ATOM     39  O   UNL     1      -4.582  -2.297   3.004  0.00  0.00    +0.000 OA
ATOM     40  H   UNL     1      -6.138  -4.014   2.560  0.00  0.00    +0.000 HD
ENDBRANCH  32  33
BRANCH  32  41
ATOM     41  C   UNL     1      -4.623   0.616   3.190  0.00  0.00    +0.000 C 
ATOM     42  C   UNL     1      -4.973   2.088   3.457  0.00  0.00    +0.000 C 
ATOM     43  C   UNL     1      -3.182   0.356   3.643  0.00  0.00    +0.000 C 
ENDBRANCH  32  41
ENDBRANCH  29  32
ENDBRANCH  27  28
BRANCH  27  44
ATOM     44  C   UNL     1      -1.392   2.879  -0.344  0.00  0.00    +0.000 C 
BRANCH  44  45
ATOM     45  C   UNL     1      -2.496   3.890  -0.576  0.00  0.00    +0.000 A 
ATOM     46  C   UNL     1      -2.833   4.818   0.421  0.00  0.00    +0.000 A 
ATOM     47  C   UNL     1      -3.863   5.735   0.213  0.00  0.00    +0.000 A 
ATOM     48  C   UNL     1      -4.563   5.739  -0.993  0.00  0.00    +0.000 A 
ATOM     49  C   UNL     1      -4.230   4.827  -1.993  0.00  0.00    +0.000 A 
ATOM     50  C   UNL     1      -3.200   3.909  -1.787  0.00  0.00    +0.000 A 
ENDBRANCH  44  45
ENDBRANCH  27  44
ENDBRANCH  26  27
ENDBRANCH   1  26
TORSDOF 16
