REMARK  Name = 
REMARK  20 active torsions:
REMARK  status: ('A' for Active; 'I' for Inactive)
REMARK    1  A    between atoms: C_1  and  C_2
REMARK    2  A    between atoms: C_3  and  O_9
REMARK    3  A    between atoms: C_4  and  C_8
REMARK    4  A    between atoms: O_9  and  C_10
REMARK    5  A    between atoms: C_10  and  C_11
REMARK    6  A    between atoms: N_13  and  C_14
REMARK    7  A    between atoms: C_14  and  C_15
REMARK    8  A    between atoms: C_14  and  C_22
REMARK    9  A    between atoms: C_15  and  C_16
REMARK   10  A    between atoms: C_22  and  C_23
REMARK   11  A    between atoms: C_22  and  O_46
REMARK   12  A    between atoms: C_23  and  C_24
REMARK   13  A    between atoms: C_24  and  C_25
REMARK   14  A    between atoms: C_24  and  N_32
REMARK   15  A    between atoms: C_25  and  C_26
REMARK   16  A    between atoms: C_33  and  C_35
REMARK   17  A    between atoms: C_35  and  C_36
REMARK   18  A    between atoms: C_35  and  N_39
REMARK   19  A    between atoms: C_36  and  C_37
REMARK   20  A    between atoms: C_36  and  C_38
REMARK                            x       y       z     vdW  Elec       q    Type
REMARK                         _______ _______ _______ _____ _____    ______ ____
ROOT
ATOM      1  C   UNL     1       0.000   0.000   0.000  0.00  0.00    +0.000 C 
ENDROOT
BRANCH   1   2
ATOM      2  O   UNL     1       0.000   0.000   0.000  0.00  0.00    +0.000 OA
ATOM      3  H   UNL     1       0.000   0.000   0.000  0.00  0.00    +0.000 HD
ENDBRANCH   1   2
BRANCH   1   4
ATOM      4  C   UNL     1       0.000   0.000   0.000  0.00  0.00    +0.000 C 
BRANCH   4   7
ATOM      5  C   UNL     1       0.000   0.000   0.000  0.00  0.00    +0.000 C 
ATOM      6  O   UNL     1       0.000   0.000   0.000  0.00  0.00    +0.000 OA
ATOM      7  N   UNL     1       0.000   0.000   0.000  0.00  0.00    +0.000 N 
ATOM      8  H   UNL     1       0.000   0.000   0.000  0.00  0.00    +0.000 HD
BRANCH   5   9
ATOM      9  C   UNL     1       0.000   0.000   0.000  0.00  0.00    +0.000 C 
BRANCH   9  10
ATOM     10  O   UNL     1       0.000   0.000   0.000  0.00  0.00    +0.000 OA
BRANCH  10  13
ATOM     11  C   UNL     1       0.000   0.000   0.000  0.00  0.00    +0.000 C 
ATOM     12  C   UNL     1       0.000   0.000   0.000  0.00  0.00    +0.000 A 
ATOM     13  C   UNL     1       0.000   0.000   0.000  0.00  0.00    +0.000 A 
ATOM     14  C   UNL     1       0.000   0.000   0.000  0.00  0.00    +0.000 A 
ATOM     15  C   UNL     1       0.000   0.000   0.000  0.00  0.00    +0.000 A 
ATOM     16  C   UNL     1       0.000   0.000   0.000  0.00  0.00    +0.000 A 
ATOM     17  C   UNL     1       0.000   0.000   0.000  0.00  0.00    +0.000 A 
ATOM     18  C   UNL     1       0.000   0.000   0.000  0.00  0.00    +0.000 C 
ENDBRANCH  10  13
ENDBRANCH   9  10
ENDBRANCH   5   9
ENDBRANCH   4   7
BRANCH   4  19
ATOM     19  C   UNL     1       0.000   0.000   0.000  0.00  0.00    +0.000 C 
BRANCH  19  20
ATOM     20  C   UNL     1       0.000   0.000   0.000  0.00  0.00    +0.000 A 
ATOM     21  C   UNL     1       0.000   0.000   0.000  0.00  0.00    +0.000 A 
ATOM     22  C   UNL     1       0.000   0.000   0.000  0.00  0.00    +0.000 A 
ATOM     23  C   UNL     1       0.000   0.000   0.000  0.00  0.00    +0.000 A 
ATOM     24  C   UNL     1       0.000   0.000   0.000  0.00  0.00    +0.000 A 
ATOM     25  C   UNL     1       0.000   0.000   0.000  0.00  0.00    +0.000 A 
ENDBRANCH  19  20
ENDBRANCH   4  19
ENDBRANCH   1   4
BRANCH   1  26
ATOM     26  C   UNL     1       0.000   0.000   0.000  0.00  0.00    +0.000 C 
BRANCH  26  27
ATOM     27  C   UNL     1       0.000   0.000   0.000  0.00  0.00    +0.000 C 
BRANCH  27  28
ATOM     28  N   UNL     1       0.000   0.000   0.000  0.00  0.00    +0.000 N 
ATOM     29  C   UNL     1       0.000   0.000   0.000  0.00  0.00    +0.000 C 
ATOM     30  O   UNL     1       0.000   0.000   0.000  0.00  0.00    +0.000 OA
ATOM     31  H   UNL     1       0.000   0.000   0.000  0.00  0.00    +0.000 HD
BRANCH  29  32
ATOM     32  C   UNL     1       0.000   0.000   0.000  0.00  0.00    +0.000 C 
BRANCH  32  33
ATOM     33  N   UNL     1       0.000   0.000   0.000  0.00  0.00    +0.000 N 
ATOM     34  C   UNL     1       0.000   0.000   0.000  0.00  0.00    +0.000 C 
ATOM     35  C   UNL     1       0.000   0.000   0.000  0.00  0.00    +0.000 C 
ATOM     36  C   UNL     1       0.000   0.000   0.000  0.00  0.00    +0.000 C 
ATOM     37  N   UNL     1       0.000   0.000   0.000  0.00  0.00    +0.000 N 
ATOM     38  C   UNL     1       0.000   0.000   0.000  0.00  0.00    +0.000 C 
ATOM     39  O   UNL     1       0.000   0.000   0.000  0.00  0.00    +0.000 OA
ATOM     40  H   UNL     1       0.000   0.000   0.000  0.00  0.00    +0.000 HD
ENDBRANCH  32  33
BRANCH  32  41
ATOM     41  C   UNL     1       0.000   0.000   0.000  0.00  0.00    +0.000 C 
ATOM     42  C   UNL     1       0.000   0.000   0.000  0.00  0.00    +0.000 C 
ATOM     43  C   UNL     1       0.000   0.000   0.000  0.00  0.00    +0.000 C 
ENDBRANCH  32  41
ENDBRANCH  29  32
ENDBRANCH  27  28
BRANCH  27  44
ATOM     44  C   UNL     1       0.000   0.000   0.000  0.00  0.00    +0.000 C 
BRANCH  44  45
ATOM     45  C   UNL     1       0.000   0.000   0.000  0.00  0.00    +0.000 A 
ATOM     46  C   UNL     1       0.000   0.000   0.000  0.00  0.00    +0.000 A 
ATOM     47  C   UNL     1       0.000   0.000   0.000  0.00  0.00    +0.000 A 
ATOM     48  C   UNL     1       0.000   0.000   0.000  0.00  0.00    +0.000 A 
ATOM     49  C   UNL     1       0.000   0.000   0.000  0.00  0.00    +0.000 A 
ATOM     50  C   UNL     1       0.000   0.000   0.000  0.00  0.00    +0.000 A 
ENDBRANCH  44  45
ENDBRANCH  27  44
ENDBRANCH  26  27
ENDBRANCH   1  26
TORSDOF 16
