REMARK  Name = 
REMARK  16 active torsions:
REMARK  status: ('A' for Active; 'I' for Inactive)
REMARK    1  A    between atoms: C_1  and  C_2
REMARK    2  A    between atoms: C_3  and  C_9
REMARK    3  A    between atoms: C_7  and  O_8
REMARK    4  A    between atoms: N_11  and  C_12
REMARK    5  A    between atoms: C_12  and  C_13
REMARK    6  A    between atoms: C_12  and  C_21
REMARK    7  A    between atoms: C_13  and  S_14
REMARK    8  A    between atoms: S_14  and  C_15
REMARK    9  A    between atoms: C_21  and  C_22
REMARK   10  A    between atoms: C_21  and  O_40
REMARK   11  A    between atoms: C_22  and  N_23
REMARK   12  A    between atoms: C_32  and  C_33
REMARK   13  A    between atoms: N_35  and  C_36
REMARK   14  A    between atoms: C_36  and  C_37
REMARK   15  A    between atoms: C_36  and  C_38
REMARK   16  A    between atoms: C_36  and  C_39
REMARK                            x       y       z     vdW  Elec       q    Type
REMARK                         _______ _______ _______ _____ _____    ______ ____
ROOT
ATOM      1  C   UNL     1       0.680  -6.364  -0.774  0.00  0.00    +0.000 C 
ENDROOT
BRANCH   1   4
ATOM      2  C   UNL     1       2.045  -6.172  -2.915  0.00  0.00    +0.000 C 
ATOM      3  O   UNL     1       1.568  -7.237  -3.309  0.00  0.00    +0.000 OA
ATOM      4  N   UNL     1       1.688  -5.669  -1.671  0.00  0.00    +0.000 N 
ATOM      5  H   UNL     1       2.126  -4.822  -1.337  0.00  0.00    +0.000 HD
BRANCH   2   8
ATOM      6  C   UNL     1       4.585  -4.237  -2.240  0.00  0.00    +0.000 C 
ATOM      7  C   UNL     1       4.012  -4.511  -3.600  0.00  0.00    +0.000 A 
ATOM      8  C   UNL     1       2.932  -5.385  -3.872  0.00  0.00    +0.000 A 
ATOM      9  C   UNL     1       2.617  -5.626  -5.234  0.00  0.00    +0.000 A 
ATOM     10  C   UNL     1       3.285  -4.997  -6.294  0.00  0.00    +0.000 A 
ATOM     11  C   UNL     1       4.298  -4.093  -6.021  0.00  0.00    +0.000 A 
ATOM     12  C   UNL     1       4.640  -3.861  -4.695  0.00  0.00    +0.000 A 
BRANCH  12  13
ATOM     13  O   UNL     1       5.668  -2.978  -4.489  0.00  0.00    +0.000 OA
ATOM     14  H   UNL     1       5.257  -2.131  -4.246  0.00  0.00    +0.000 HD
ENDBRANCH  12  13
ENDBRANCH   2   8
ENDBRANCH   1   4
BRANCH   1  15
ATOM     15  C   UNL     1       1.362  -6.665   0.598  0.00  0.00    +0.000 C 
BRANCH  15  16
ATOM     16  S   UNL     1       0.377  -7.558   1.873  0.00  0.00    +0.000 S 
BRANCH  16  17
ATOM     17  C   UNL     1       1.398  -7.292   3.302  0.00  0.00    +0.000 A 
ATOM     18  C   UNL     1       1.386  -6.097   4.030  0.00  0.00    +0.000 A 
ATOM     19  C   UNL     1       2.245  -5.936   5.121  0.00  0.00    +0.000 A 
ATOM     20  C   UNL     1       3.107  -6.970   5.490  0.00  0.00    +0.000 A 
ATOM     21  C   UNL     1       3.089  -8.175   4.788  0.00  0.00    +0.000 A 
ATOM     22  C   UNL     1       2.232  -8.339   3.707  0.00  0.00    +0.000 A 
ENDBRANCH  16  17
ENDBRANCH  15  16
ENDBRANCH   1  15
BRANCH   1  23
ATOM     23  C   UNL     1      -0.634  -5.528  -0.596  0.00  0.00    +0.000 C 
BRANCH  23  24
ATOM     24  O   UNL     1      -1.540  -6.114   0.353  0.00  0.00    +0.000 OA
ATOM     25  H   UNL     1      -2.432  -5.799   0.102  0.00  0.00    +0.000 HD
ENDBRANCH  23  24
BRANCH  23  26
ATOM     26  C   UNL     1      -1.500  -5.305  -1.865  0.00  0.00    +0.000 C 
BRANCH  26  27
ATOM     27  N   UNL     1      -2.776  -4.618  -1.507  0.00  0.00    +0.000 NA
ATOM     28  C   UNL     1      -2.577  -3.264  -0.905  0.00  0.00    +0.000 C 
ATOM     29  C   UNL     1      -2.023  -2.167  -1.839  0.00  0.00    +0.000 C 
ATOM     30  C   UNL     1      -0.491  -2.174  -2.027  0.00  0.00    +0.000 C 
ATOM     31  C   UNL     1       0.103  -2.155  -3.436  0.00  0.00    +0.000 C 
ATOM     32  C   UNL     1      -0.811  -1.765  -4.588  0.00  0.00    +0.000 C 
ATOM     33  C   UNL     1      -2.153  -1.198  -4.155  0.00  0.00    +0.000 C 
ATOM     34  C   UNL     1      -2.860  -2.078  -3.117  0.00  0.00    +0.000 C 
ATOM     35  C   UNL     1      -3.260  -3.456  -3.673  0.00  0.00    +0.000 C 
ATOM     36  C   UNL     1      -3.745  -4.485  -2.620  0.00  0.00    +0.000 C 
BRANCH  36  37
ATOM     37  C   UNL     1      -4.059  -5.833  -3.346  0.00  0.00    +0.000 C 
ATOM     38  O   UNL     1      -3.833  -5.935  -4.554  0.00  0.00    +0.000 OA
ATOM     39  N   UNL     1      -4.642  -6.873  -2.646  0.00  0.00    +0.000 N 
ATOM     40  H   UNL     1      -4.746  -6.782  -1.639  0.00  0.00    +0.000 HD
BRANCH  39  41
ATOM     41  C   UNL     1      -5.057  -8.149  -3.307  0.00  0.00    +0.000 C 
ATOM     42  C   UNL     1      -3.852  -8.874  -3.939  0.00  0.00    +0.000 C 
ATOM     43  C   UNL     1      -5.686  -9.138  -2.299  0.00  0.00    +0.000 C 
ATOM     44  C   UNL     1      -6.134  -7.876  -4.379  0.00  0.00    +0.000 C 
ENDBRANCH  39  41
ENDBRANCH  36  37
ENDBRANCH  26  27
ENDBRANCH  23  26
ENDBRANCH   1  23
TORSDOF 12
